# vtk DataFile Version 2.0
sampleSurface
ASCII
DATASET POLYDATA
POINTS 40 float
12.5 15 0 12.5 25 0 27.5 15 0 27.5 25
0 12.5 15 40 44 9 0 44 21 0
12.5 25 40 15 47 0 27.5 15 40 27.5
25 40 56 9 0 35 47 0 56 21
0 15 63 0 15 47 48 44 9 55
35 63 0 71 17.5 0 44 21 55 35
47 48 58 51 0 71 32.5 0 56 9
55 15 63 48 71 17.5 35 56 21 55
71 32.5 35 35 63 48 72 51 0 58
69 0 89 17.5 0 89 32.5 0 89 17.5
35 58 51 62 72 69 0 89 32.5 35
72 51 62 58 69 62 72 69 62 
POLYGONS 60 240
3 0 3 2 3 0 1 3 3 4 9
10 3 4 10 7 3 0 2 9 3
0 9 4 3 3 1 7 3 3 7
10 3 0 4 7 3 0 7 1 3
2 3 10 3 2 10 9 3 5 13
11 3 5 6 13 3 16 23 26 3
16 26 19 3 5 11 23 3 5 23
16 3 13 6 19 3 13 19 26 3
5 16 19 3 5 19 6 3 11 13
26 3 11 26 23 3 18 32 31 3
18 22 32 3 25 33 36 3 25 36
27 3 18 31 33 3 18 33 25 3
32 22 27 3 32 27 36 3 18 25
27 3 18 27 22 3 31 32 36 3
31 36 33 3 8 17 12 3 8 14
17 3 15 20 28 3 15 28 24 3
8 12 20 3 8 20 15 3 17 14
24 3 17 24 28 3 8 15 24 3
8 24 14 3 12 17 28 3 12 28
20 3 21 35 29 3 21 30 35 3
34 37 39 3 34 39 38 3 21 29
37 3 21 37 34 3 35 30 38 3
35 38 39 3 21 34 38 3 21 38
30 3 29 35 39 3 29 39 37 
CELL_DATA 60
FIELD attributes 1
zone 1 60 float
0 0 0 0 0 0 0 0 0 0 0
0 1 1 1 1 1 1 1 1 1
1 1 1 2 2 2 2 2 2 2
2 2 2 2 2 3 3 3 3 3
3 3 3 3 3 3 3 4 4 4
4 4 4 4 4 4 4 4 4 
